+ 0 /NodeList/0/DeviceList/0/$ns3::PointToPointNetDevice/TxQueue/Enqueue ns3::PppHeader (Point-to-Point Protocol: IP (0x0021)) ns3::Ipv4Header (tos 0x0 DSCP Default ECN Not-ECT ttl 64 id 0 protocol 6 offset (bytes) 0 flags [none] length: 56 10.1.1.1 > 10.1.2.2) ns3::TcpHeader (49153 > 9999 [SYN] Seq=0 Ack=0 Win=65535 ns3::TcpOptionTS(0;0) ns3::TcpOptionWinScale(2) ns3::TcpOptionSackPermitted([sack_perm]) ns3::TcpOptionEnd(EOL))
- 0 /NodeList/0/DeviceList/0/$ns3::PointToPointNetDevice/TxQueue/Dequeue ns3::PppHeader (Point-to-Point Protocol: IP (0x0021)) ns3::Ipv4Header (tos 0x0 DSCP Default ECN Not-ECT ttl 64 id 0 protocol 6 offset (bytes) 0 flags [none] length: 56 10.1.1.1 > 10.1.2.2) ns3::TcpHeader (49153 > 9999 [SYN] Seq=0 Ack=0 Win=65535 ns3::TcpOptionTS(0;0) ns3::TcpOptionWinScale(2) ns3::TcpOptionSackPermitted([sack_perm]) ns3::TcpOptionEnd(EOL))
+ 0 /NodeList/3/DeviceList/0/$ns3::PointToPointNetDevice/TxQueue/Enqueue ns3::PppHeader (Point-to-Point Protocol: IP (0x0021)) ns3::Ipv4Header (tos 0x0 DSCP Default ECN Not-ECT ttl 64 id 0 protocol 6 offset (bytes) 0 flags [none] length: 56 10.1.3.2 > 10.1.2.2) ns3::TcpHeader (49153 > 9999 [SYN] Seq=0 Ack=0 Win=65535 ns3::TcpOptionTS(0;0) ns3::TcpOptionWinScale(2) ns3::TcpOptionSackPermitted([sack_perm]) ns3::TcpOptionEnd(EOL))
- 0 /NodeList/3/DeviceList/0/$ns3::PointToPointNetDevice/TxQueue/Dequeue ns3::PppHeader (Point-to-Point Protocol: IP (0x0021)) ns3::Ipv4Header (tos 0x0 DSCP Default ECN Not-ECT ttl 64 id 0 protocol 6 offset (bytes) 0 flags [none] length: 56 10.1.3.2 > 10.1.2.2) ns3::TcpHeader (49153 > 9999 [SYN] Seq=0 Ack=0 Win=65535 ns3::TcpOptionTS(0;0) ns3::TcpOptionWinScale(2) ns3::TcpOptionSackPermitted([sack_perm]) ns3::TcpOptionEnd(EOL))
r 0.00332 /NodeList/1/DeviceList/0/$ns3::PointToPointNetDevice/MacRx ns3::PppHeader (Point-to-Point Protocol: IP (0x0021)) ns3::Ipv4Header (tos 0x0 DSCP Default ECN Not-ECT ttl 64 id 0 protocol 6 offset (bytes) 0 flags [none] length: 56 10.1.1.1 > 10.1.2.2) ns3::TcpHeader (49153 > 9999 [SYN] Seq=0 Ack=0 Win=65535 ns3::TcpOptionTS(0;0) ns3::TcpOptionWinScale(2) ns3::TcpOptionSackPermitted([sack_perm]) ns3::TcpOptionEnd(EOL))
+ 0.00332 /NodeList/1/DeviceList/1/$ns3::PointToPointNetDevice/TxQueue/Enqueue ns3::PppHeader (Point-to-Point Protocol: IP (0x0021)) ns3::Ipv4Header (tos 0x0 DSCP Default ECN Not-ECT ttl 63 id 0 protocol 6 offset (bytes) 0 flags [none] length: 56 10.1.1.1 > 10.1.2.2) ns3::TcpHeader (49153 > 9999 [SYN] Seq=0 Ack=0 Win=65535 ns3::TcpOptionTS(0;0) ns3::TcpOptionWinScale(2) ns3::TcpOptionSackPermitted([sack_perm]) ns3::TcpOptionEnd(EOL))
- 0.00332 /NodeList/1/DeviceList/1/$ns3::PointToPointNetDevice/TxQueue/Dequeue ns3::PppHeader (Point-to-Point Protocol: IP (0x0021)) ns3::Ipv4Header (tos 0x0 DSCP Default ECN Not-ECT ttl 63 id 0 protocol 6 offset (bytes) 0 flags [none] length: 56 10.1.1.1 > 10.1.2.2) ns3::TcpHeader (49153 > 9999 [SYN] Seq=0 Ack=0 Win=65535 ns3::TcpOptionTS(0;0) ns3::TcpOptionWinScale(2) ns3::TcpOptionSackPermitted([sack_perm]) ns3::TcpOptionEnd(EOL))
r 0.00332 /NodeList/1/DeviceList/2/$ns3::PointToPointNetDevice/MacRx ns3::PppHeader (Point-to-Point Protocol: IP (0x0021)) ns3::Ipv4Header (tos 0x0 DSCP Default ECN Not-ECT ttl 64 id 0 protocol 6 offset (bytes) 0 flags [none] length: 56 10.1.3.2 > 10.1.2.2) ns3::TcpHeader (49153 > 9999 [SYN] Seq=0 Ack=0 Win=65535 ns3::TcpOptionTS(0;0) ns3::TcpOptionWinScale(2) ns3::TcpOptionSackPermitted([sack_perm]) ns3::TcpOptionEnd(EOL))
+ 0.00332 /NodeList/1/DeviceList/1/$ns3::PointToPointNetDevice/TxQueue/Enqueue ns3::PppHeader (Point-to-Point Protocol: IP (0x0021)) ns3::Ipv4Header (tos 0x0 DSCP Default ECN Not-ECT ttl 63 id 0 protocol 6 offset (bytes) 0 flags [none] length: 56 10.1.3.2 > 10.1.2.2) ns3::TcpHeader (49153 > 9999 [SYN] Seq=0 Ack=0 Win=65535 ns3::TcpOptionTS(0;0) ns3::TcpOptionWinScale(2) ns3::TcpOptionSackPermitted([sack_perm]) ns3::TcpOptionEnd(EOL))
- 0.00564 /NodeList/1/DeviceList/1/$ns3::PointToPointNetDevice/TxQueue/Dequeue ns3::PppHeader (Point-to-Point Protocol: IP (0x0021)) ns3::Ipv4Header (tos 0x0 DSCP Default ECN Not-ECT ttl 63 id 0 protocol 6 offset (bytes) 0 flags [none] length: 56 10.1.3.2 > 10.1.2.2) ns3::TcpHeader (49153 > 9999 [SYN] Seq=0 Ack=0 Win=65535 ns3::TcpOptionTS(0;0) ns3::TcpOptionWinScale(2) ns3::TcpOptionSackPermitted([sack_perm]) ns3::TcpOptionEnd(EOL))
r 0.00664 /NodeList/2/DeviceList/0/$ns3::PointToPointNetDevice/MacRx ns3::PppHeader (Point-to-Point Protocol: IP (0x0021)) ns3::Ipv4Header (tos 0x0 DSCP Default ECN Not-ECT ttl 63 id 0 protocol 6 offset (bytes) 0 flags [none] length: 56 10.1.1.1 > 10.1.2.2) ns3::TcpHeader (49153 > 9999 [SYN] Seq=0 Ack=0 Win=65535 ns3::TcpOptionTS(0;0) ns3::TcpOptionWinScale(2) ns3::TcpOptionSackPermitted([sack_perm]) ns3::TcpOptionEnd(EOL))
+ 0.00664 /NodeList/2/DeviceList/0/$ns3::PointToPointNetDevice/TxQueue/Enqueue ns3::PppHeader (Point-to-Point Protocol: IP (0x0021)) ns3::Ipv4Header (tos 0x0 DSCP Default ECN Not-ECT ttl 64 id 0 protocol 6 offset (bytes) 0 flags [none] length: 56 10.1.2.2 > 10.1.1.1) ns3::TcpHeader (9999 > 49153 [SYN|ACK] Seq=0 Ack=1 Win=65535 ns3::TcpOptionTS(6;0) ns3::TcpOptionWinScale(2) ns3::TcpOptionSackPermitted([sack_perm]) ns3::TcpOptionEnd(EOL))
- 0.00664 /NodeList/2/DeviceList/0/$ns3::PointToPointNetDevice/TxQueue/Dequeue ns3::PppHeader (Point-to-Point Protocol: IP (0x0021)) ns3::Ipv4Header (tos 0x0 DSCP Default ECN Not-ECT ttl 64 id 0 protocol 6 offset (bytes) 0 flags [none] length: 56 10.1.2.2 > 10.1.1.1) ns3::TcpHeader (9999 > 49153 [SYN|ACK] Seq=0 Ack=1 Win=65535 ns3::TcpOptionTS(6;0) ns3::TcpOptionWinScale(2) ns3::TcpOptionSackPermitted([sack_perm]) ns3::TcpOptionEnd(EOL))
r 0.00896 /NodeList/2/DeviceList/0/$ns3::PointToPointNetDevice/MacRx ns3::PppHeader (Point-to-Point Protocol: IP (0x0021)) ns3::Ipv4Header (tos 0x0 DSCP Default ECN Not-ECT ttl 63 id 0 protocol 6 offset (bytes) 0 flags [none] length: 56 10.1.3.2 > 10.1.2.2) ns3::TcpHeader (49153 > 9999 [SYN] Seq=0 Ack=0 Win=65535 ns3::TcpOptionTS(0;0) ns3::TcpOptionWinScale(2) ns3::TcpOptionSackPermitted([sack_perm]) ns3::TcpOptionEnd(EOL))
+ 0.00896 /NodeList/2/DeviceList/0/$ns3::PointToPointNetDevice/TxQueue/Enqueue ns3::PppHeader (Point-to-Point Protocol: IP (0x0021)) ns3::Ipv4Header (tos 0x0 DSCP Default ECN Not-ECT ttl 64 id 0 protocol 6 offset (bytes) 0 flags [none] length: 56 10.1.2.2 > 10.1.3.2) ns3::TcpHeader (9999 > 49153 [SYN|ACK] Seq=0 Ack=1 Win=65535 ns3::TcpOptionTS(8;0) ns3::TcpOptionWinScale(2) ns3::TcpOptionSackPermitted([sack_perm]) ns3::TcpOptionEnd(EOL))
- 0.00896 /NodeList/2/DeviceList/0/$ns3::PointToPointNetDevice/TxQueue/Dequeue ns3::PppHeader (Point-to-Point Protocol: IP (0x0021)) ns3::Ipv4Header (tos 0x0 DSCP Default ECN Not-ECT ttl 64 id 0 protocol 6 offset (bytes) 0 flags [none] length: 56 10.1.2.2 > 10.1.3.2) ns3::TcpHeader (9999 > 49153 [SYN|ACK] Seq=0 Ack=1 Win=65535 ns3::TcpOptionTS(8;0) ns3::TcpOptionWinScale(2) ns3::TcpOptionSackPermitted([sack_perm]) ns3::TcpOptionEnd(EOL))
r 0.00996 /NodeList/1/DeviceList/1/$ns3::PointToPointNetDevice/MacRx ns3::PppHeader (Point-to-Point Protocol: IP (0x0021)) ns3::Ipv4Header (tos 0x0 DSCP Default ECN Not-ECT ttl 64 id 0 protocol 6 offset (bytes) 0 flags [none] length: 56 10.1.2.2 > 10.1.1.1) ns3::TcpHeader (9999 > 49153 [SYN|ACK] Seq=0 Ack=1 Win=65535 ns3::TcpOptionTS(6;0) ns3::TcpOptionWinScale(2) ns3::TcpOptionSackPermitted([sack_perm]) ns3::TcpOptionEnd(EOL))
+ 0.00996 /NodeList/1/DeviceList/0/$ns3::PointToPointNetDevice/TxQueue/Enqueue ns3::PppHeader (Point-to-Point Protocol: IP (0x0021)) ns3::Ipv4Header (tos 0x0 DSCP Default ECN Not-ECT ttl 63 id 0 protocol 6 offset (bytes) 0 flags [none] length: 56 10.1.2.2 > 10.1.1.1) ns3::TcpHeader (9999 > 49153 [SYN|ACK] Seq=0 Ack=1 Win=65535 ns3::TcpOptionTS(6;0) ns3::TcpOptionWinScale(2) ns3::TcpOptionSackPermitted([sack_perm]) ns3::TcpOptionEnd(EOL))
- 0.00996 /NodeList/1/DeviceList/0/$ns3::PointToPointNetDevice/TxQueue/Dequeue ns3::PppHeader (Point-to-Point Protocol: IP (0x0021)) ns3::Ipv4Header (tos 0x0 DSCP Default ECN Not-ECT ttl 63 id 0 protocol 6 offset (bytes) 0 flags [none] length: 56 10.1.2.2 > 10.1.1.1) ns3::TcpHeader (9999 > 49153 [SYN|ACK] Seq=0 Ack=1 Win=65535 ns3::TcpOptionTS(6;0) ns3::TcpOptionWinScale(2) ns3::TcpOptionSackPermitted([sack_perm]) ns3::TcpOptionEnd(EOL))
r 0.01228 /NodeList/1/DeviceList/1/$ns3::PointToPointNetDevice/MacRx ns3::PppHeader (Point-to-Point Protocol: IP (0x0021)) ns3::Ipv4Header (tos 0x0 DSCP Default ECN Not-ECT ttl 64 id 0 protocol 6 offset (bytes) 0 flags [none] length: 56 10.1.2.2 > 10.1.3.2) ns3::TcpHeader (9999 > 49153 [SYN|ACK] Seq=0 Ack=1 Win=65535 ns3::TcpOptionTS(8;0) ns3::TcpOptionWinScale(2) ns3::TcpOptionSackPermitted([sack_perm]) ns3::TcpOptionEnd(EOL))
+ 0.01228 /NodeList/1/DeviceList/2/$ns3::PointToPointNetDevice/TxQueue/Enqueue ns3::PppHeader (Point-to-Point Protocol: IP (0x0021)) ns3::Ipv4Header (tos 0x0 DSCP Default ECN Not-ECT ttl 63 id 0 protocol 6 offset (bytes) 0 flags [none] length: 56 10.1.2.2 > 10.1.3.2) ns3::TcpHeader (9999 > 49153 [SYN|ACK] Seq=0 Ack=1 Win=65535 ns3::TcpOptionTS(8;0) ns3::TcpOptionWinScale(2) ns3::TcpOptionSackPermitted([sack_perm]) ns3::TcpOptionEnd(EOL))
- 0.01228 /NodeList/1/DeviceList/2/$ns3::PointToPointNetDevice/TxQueue/Dequeue ns3::PppHeader (Point-to-Point Protocol: IP (0x0021)) ns3::Ipv4Header (tos 0x0 DSCP Default ECN Not-ECT ttl 63 id 0 protocol 6 offset (bytes) 0 flags [none] length: 56 10.1.2.2 > 10.1.3.2) ns3::TcpHeader (9999 > 49153 [SYN|ACK] Seq=0 Ack=1 Win=65535 ns3::TcpOptionTS(8;0) ns3::TcpOptionWinScale(2) ns3::TcpOptionSackPermitted([sack_perm]) ns3::TcpOptionEnd(EOL))
r 0.01328 /NodeList/0/DeviceList/0/$ns3::PointToPointNetDevice/MacRx ns3::PppHeader (Point-to-Point Protocol: IP (0x0021)) ns3::Ipv4Header (tos 0x0 DSCP Default ECN Not-ECT ttl 63 id 0 protocol 6 offset (bytes) 0 flags [none] length: 56 10.1.2.2 > 10.1.1.1) ns3::TcpHeader (9999 > 49153 [SYN|ACK] Seq=0 Ack=1 Win=65535 ns3::TcpOptionTS(6;0) ns3::TcpOptionWinScale(2) ns3::TcpOptionSackPermitted([sack_perm]) ns3::TcpOptionEnd(EOL))
+ 0.01328 /NodeList/0/DeviceList/0/$ns3::PointToPointNetDevice/TxQueue/Enqueue ns3::PppHeader (Point-to-Point Protocol: IP (0x0021)) ns3::Ipv4Header (tos 0x0 DSCP Default ECN Not-ECT ttl 64 id 1 protocol 6 offset (bytes) 0 flags [none] length: 52 10.1.1.1 > 10.1.2.2) ns3::TcpHeader (49153 > 9999 [ACK] Seq=1 Ack=1 Win=32768 ns3::TcpOptionTS(13;6) ns3::TcpOptionEnd(EOL))
- 0.01328 /NodeList/0/DeviceList/0/$ns3::PointToPointNetDevice/TxQueue/Dequeue ns3::PppHeader (Point-to-Point Protocol: IP (0x0021)) ns3::Ipv4Header (tos 0x0 DSCP Default ECN Not-ECT ttl 64 id 1 protocol 6 offset (bytes) 0 flags [none] length: 52 10.1.1.1 > 10.1.2.2) ns3::TcpHeader (49153 > 9999 [ACK] Seq=1 Ack=1 Win=32768 ns3::TcpOptionTS(13;6) ns3::TcpOptionEnd(EOL))
+ 0.01328 /NodeList/0/DeviceList/0/$ns3::PointToPointNetDevice/TxQueue/Enqueue ns3::PppHeader (Point-to-Point Protocol: IP (0x0021)) ns3::Ipv4Header (tos 0x0 DSCP Default ECN Not-ECT ttl 64 id 2 protocol 6 offset (bytes) 0 flags [none] length: 588 10.1.1.1 > 10.1.2.2) ns3::TcpHeader (49153 > 9999 [ACK] Seq=1 Ack=1 Win=32768 ns3::TcpOptionTS(13;6) ns3::TcpOptionEnd(EOL)) Payload Fragment [0:536]
- 0.01544 /NodeList/0/DeviceList/0/$ns3::PointToPointNetDevice/TxQueue/Dequeue ns3::PppHeader (Point-to-Point Protocol: IP (0x0021)) ns3::Ipv4Header (tos 0x0 DSCP Default ECN Not-ECT ttl 64 id 2 protocol 6 offset (bytes) 0 flags [none] length: 588 10.1.1.1 > 10.1.2.2) ns3::TcpHeader (49153 > 9999 [ACK] Seq=1 Ack=1 Win=32768 ns3::TcpOptionTS(13;6) ns3::TcpOptionEnd(EOL)) Payload Fragment [0:536]
r 0.0156 /NodeList/3/DeviceList/0/$ns3::PointToPointNetDevice/MacRx ns3::PppHeader (Point-to-Point Protocol: IP (0x0021)) ns3::Ipv4Header (tos 0x0 DSCP Default ECN Not-ECT ttl 63 id 0 protocol 6 offset (bytes) 0 flags [none] length: 56 10.1.2.2 > 10.1.3.2) ns3::TcpHeader (9999 > 49153 [SYN|ACK] Seq=0 Ack=1 Win=65535 ns3::TcpOptionTS(8;0) ns3::TcpOptionWinScale(2) ns3::TcpOptionSackPermitted([sack_perm]) ns3::TcpOptionEnd(EOL))
+ 0.0156 /NodeList/3/DeviceList/0/$ns3::PointToPointNetDevice/TxQueue/Enqueue ns3::PppHeader (Point-to-Point Protocol: IP (0x0021)) ns3::Ipv4Header (tos 0x0 DSCP Default ECN Not-ECT ttl 64 id 1 protocol 6 offset (bytes) 0 flags [none] length: 52 10.1.3.2 > 10.1.2.2) ns3::TcpHeader (49153 > 9999 [ACK] Seq=1 Ack=1 Win=32768 ns3::TcpOptionTS(15;8) ns3::TcpOptionEnd(EOL))
- 0.0156 /NodeList/3/DeviceList/0/$ns3::PointToPointNetDevice/TxQueue/Dequeue ns3::PppHeader (Point-to-Point Protocol: IP (0x0021)) ns3::Ipv4Header (tos 0x0 DSCP Default ECN Not-ECT ttl 64 id 1 protocol 6 offset (bytes) 0 flags [none] length: 52 10.1.3.2 > 10.1.2.2) ns3::TcpHeader (49153 > 9999 [ACK] Seq=1 Ack=1 Win=32768 ns3::TcpOptionTS(15;8) ns3::TcpOptionEnd(EOL))
+ 0.0156 /NodeList/3/DeviceList/0/$ns3::PointToPointNetDevice/TxQueue/Enqueue ns3::PppHeader (Point-to-Point Protocol: IP (0x0021)) ns3::Ipv4Header (tos 0x0 DSCP Default ECN Not-ECT ttl 64 id 2 protocol 6 offset (bytes) 0 flags [none] length: 588 10.1.3.2 > 10.1.2.2) ns3::TcpHeader (49153 > 9999 [ACK] Seq=1 Ack=1 Win=32768 ns3::TcpOptionTS(15;8) ns3::TcpOptionEnd(EOL)) Payload Fragment [0:536]
r 0.01644 /NodeList/1/DeviceList/0/$ns3::PointToPointNetDevice/MacRx ns3::PppHeader (Point-to-Point Protocol: IP (0x0021)) ns3::Ipv4Header (tos 0x0 DSCP Default ECN Not-ECT ttl 64 id 1 protocol 6 offset (bytes) 0 flags [none] length: 52 10.1.1.1 > 10.1.2.2) ns3::TcpHeader (49153 > 9999 [ACK] Seq=1 Ack=1 Win=32768 ns3::TcpOptionTS(13;6) ns3::TcpOptionEnd(EOL))
+ 0.01644 /NodeList/1/DeviceList/1/$ns3::PointToPointNetDevice/TxQueue/Enqueue ns3::PppHeader (Point-to-Point Protocol: IP (0x0021)) ns3::Ipv4Header (tos 0x0 DSCP Default ECN Not-ECT ttl 63 id 1 protocol 6 offset (bytes) 0 flags [none] length: 52 10.1.1.1 > 10.1.2.2) ns3::TcpHeader (49153 > 9999 [ACK] Seq=1 Ack=1 Win=32768 ns3::TcpOptionTS(13;6) ns3::TcpOptionEnd(EOL))
- 0.01644 /NodeList/1/DeviceList/1/$ns3::PointToPointNetDevice/TxQueue/Dequeue ns3::PppHeader (Point-to-Point Protocol: IP (0x0021)) ns3::Ipv4Header (tos 0x0 DSCP Default ECN Not-ECT ttl 63 id 1 protocol 6 offset (bytes) 0 flags [none] length: 52 10.1.1.1 > 10.1.2.2) ns3::TcpHeader (49153 > 9999 [ACK] Seq=1 Ack=1 Win=32768 ns3::TcpOptionTS(13;6) ns3::TcpOptionEnd(EOL))
- 0.01776 /NodeList/3/DeviceList/0/$ns3::PointToPointNetDevice/TxQueue/Dequeue ns3::PppHeader (Point-to-Point Protocol: IP (0x0021)) ns3::Ipv4Header (tos 0x0 DSCP Default ECN Not-ECT ttl 64 id 2 protocol 6 offset (bytes) 0 flags [none] length: 588 10.1.3.2 > 10.1.2.2) ns3::TcpHeader (49153 > 9999 [ACK] Seq=1 Ack=1 Win=32768 ns3::TcpOptionTS(15;8) ns3::TcpOptionEnd(EOL)) Payload Fragment [0:536]
r 0.01876 /NodeList/1/DeviceList/2/$ns3::PointToPointNetDevice/MacRx ns3::PppHeader (Point-to-Point Protocol: IP (0x0021)) ns3::Ipv4Header (tos 0x0 DSCP Default ECN Not-ECT ttl 64 id 1 protocol 6 offset (bytes) 0 flags [none] length: 52 10.1.3.2 > 10.1.2.2) ns3::TcpHeader (49153 > 9999 [ACK] Seq=1 Ack=1 Win=32768 ns3::TcpOptionTS(15;8) ns3::TcpOptionEnd(EOL))
+ 0.01876 /NodeList/1/DeviceList/1/$ns3::PointToPointNetDevice/TxQueue/Enqueue ns3::PppHeader (Point-to-Point Protocol: IP (0x0021)) ns3::Ipv4Header (tos 0x0 DSCP Default ECN Not-ECT ttl 63 id 1 protocol 6 offset (bytes) 0 flags [none] length: 52 10.1.3.2 > 10.1.2.2) ns3::TcpHeader (49153 > 9999 [ACK] Seq=1 Ack=1 Win=32768 ns3::TcpOptionTS(15;8) ns3::TcpOptionEnd(EOL))
- 0.01876 /NodeList/1/DeviceList/1/$ns3::PointToPointNetDevice/TxQueue/Dequeue ns3::PppHeader (Point-to-Point Protocol: IP (0x0021)) ns3::Ipv4Header (tos 0x0 DSCP Default ECN Not-ECT ttl 63 id 1 protocol 6 offset (bytes) 0 flags [none] length: 52 10.1.3.2 > 10.1.2.2) ns3::TcpHeader (49153 > 9999 [ACK] Seq=1 Ack=1 Win=32768 ns3::TcpOptionTS(15;8) ns3::TcpOptionEnd(EOL))
r 0.0196 /NodeList/2/DeviceList/0/$ns3::PointToPointNetDevice/MacRx ns3::PppHeader (Point-to-Point Protocol: IP (0x0021)) ns3::Ipv4Header (tos 0x0 DSCP Default ECN Not-ECT ttl 63 id 1 protocol 6 offset (bytes) 0 flags [none] length: 52 10.1.1.1 > 10.1.2.2) ns3::TcpHeader (49153 > 9999 [ACK] Seq=1 Ack=1 Win=32768 ns3::TcpOptionTS(13;6) ns3::TcpOptionEnd(EOL))
r 0.02192 /NodeList/2/DeviceList/0/$ns3::PointToPointNetDevice/MacRx ns3::PppHeader (Point-to-Point Protocol: IP (0x0021)) ns3::Ipv4Header (tos 0x0 DSCP Default ECN Not-ECT ttl 63 id 1 protocol 6 offset (bytes) 0 flags [none] length: 52 10.1.3.2 > 10.1.2.2) ns3::TcpHeader (49153 > 9999 [ACK] Seq=1 Ack=1 Win=32768 ns3::TcpOptionTS(15;8) ns3::TcpOptionEnd(EOL))
r 0.04004 /NodeList/1/DeviceList/0/$ns3::PointToPointNetDevice/MacRx ns3::PppHeader (Point-to-Point Protocol: IP (0x0021)) ns3::Ipv4Header (tos 0x0 DSCP Default ECN Not-ECT ttl 64 id 2 protocol 6 offset (bytes) 0 flags [none] length: 588 10.1.1.1 > 10.1.2.2) ns3::TcpHeader (49153 > 9999 [ACK] Seq=1 Ack=1 Win=32768 ns3::TcpOptionTS(13;6) ns3::TcpOptionEnd(EOL)) Payload Fragment [0:536]
+ 0.04004 /NodeList/1/DeviceList/1/$ns3::PointToPointNetDevice/TxQueue/Enqueue ns3::PppHeader (Point-to-Point Protocol: IP (0x0021)) ns3::Ipv4Header (tos 0x0 DSCP Default ECN Not-ECT ttl 63 id 2 protocol 6 offset (bytes) 0 flags [none] length: 588 10.1.1.1 > 10.1.2.2) ns3::TcpHeader (49153 > 9999 [ACK] Seq=1 Ack=1 Win=32768 ns3::TcpOptionTS(13;6) ns3::TcpOptionEnd(EOL)) Payload Fragment [0:536]
- 0.04004 /NodeList/1/DeviceList/1/$ns3::PointToPointNetDevice/TxQueue/Dequeue ns3::PppHeader (Point-to-Point Protocol: IP (0x0021)) ns3::Ipv4Header (tos 0x0 DSCP Default ECN Not-ECT ttl 63 id 2 protocol 6 offset (bytes) 0 flags [none] length: 588 10.1.1.1 > 10.1.2.2) ns3::TcpHeader (49153 > 9999 [ACK] Seq=1 Ack=1 Win=32768 ns3::TcpOptionTS(13;6) ns3::TcpOptionEnd(EOL)) Payload Fragment [0:536]
r 0.04236 /NodeList/1/DeviceList/2/$ns3::PointToPointNetDevice/MacRx ns3::PppHeader (Point-to-Point Protocol: IP (0x0021)) ns3::Ipv4Header (tos 0x0 DSCP Default ECN Not-ECT ttl 64 id 2 protocol 6 offset (bytes) 0 flags [none] length: 588 10.1.3.2 > 10.1.2.2) ns3::TcpHeader (49153 > 9999 [ACK] Seq=1 Ack=1 Win=32768 ns3::TcpOptionTS(15;8) ns3::TcpOptionEnd(EOL)) Payload Fragment [0:536]
+ 0.04236 /NodeList/1/DeviceList/1/$ns3::PointToPointNetDevice/TxQueue/Enqueue ns3::PppHeader (Point-to-Point Protocol: IP (0x0021)) ns3::Ipv4Header (tos 0x0 DSCP Default ECN Not-ECT ttl 63 id 2 protocol 6 offset (bytes) 0 flags [none] length: 588 10.1.3.2 > 10.1.2.2) ns3::TcpHeader (49153 > 9999 [ACK] Seq=1 Ack=1 Win=32768 ns3::TcpOptionTS(15;8) ns3::TcpOptionEnd(EOL)) Payload Fragment [0:536]
- 0.06364 /NodeList/1/DeviceList/1/$ns3::PointToPointNetDevice/TxQueue/Dequeue ns3::PppHeader (Point-to-Point Protocol: IP (0x0021)) ns3::Ipv4Header (tos 0x0 DSCP Default ECN Not-ECT ttl 63 id 2 protocol 6 offset (bytes) 0 flags [none] length: 588 10.1.3.2 > 10.1.2.2) ns3::TcpHeader (49153 > 9999 [ACK] Seq=1 Ack=1 Win=32768 ns3::TcpOptionTS(15;8) ns3::TcpOptionEnd(EOL)) Payload Fragment [0:536]
r 0.06464 /NodeList/2/DeviceList/0/$ns3::PointToPointNetDevice/MacRx ns3::PppHeader (Point-to-Point Protocol: IP (0x0021)) ns3::Ipv4Header (tos 0x0 DSCP Default ECN Not-ECT ttl 63 id 2 protocol 6 offset (bytes) 0 flags [none] length: 588 10.1.1.1 > 10.1.2.2) ns3::TcpHeader (49153 > 9999 [ACK] Seq=1 Ack=1 Win=32768 ns3::TcpOptionTS(13;6) ns3::TcpOptionEnd(EOL)) Payload Fragment [0:536]
+ 0.06464 /NodeList/2/DeviceList/0/$ns3::PointToPointNetDevice/TxQueue/Enqueue ns3::PppHeader (Point-to-Point Protocol: IP (0x0021)) ns3::Ipv4Header (tos 0x0 DSCP Default ECN Not-ECT ttl 64 id 1 protocol 6 offset (bytes) 0 flags [none] length: 52 10.1.2.2 > 10.1.1.1) ns3::TcpHeader (9999 > 49153 [ACK] Seq=1 Ack=537 Win=32768 ns3::TcpOptionTS(64;13) ns3::TcpOptionEnd(EOL))
- 0.06464 /NodeList/2/DeviceList/0/$ns3::PointToPointNetDevice/TxQueue/Dequeue ns3::PppHeader (Point-to-Point Protocol: IP (0x0021)) ns3::Ipv4Header (tos 0x0 DSCP Default ECN Not-ECT ttl 64 id 1 protocol 6 offset (bytes) 0 flags [none] length: 52 10.1.2.2 > 10.1.1.1) ns3::TcpHeader (9999 > 49153 [ACK] Seq=1 Ack=537 Win=32768 ns3::TcpOptionTS(64;13) ns3::TcpOptionEnd(EOL))
r 0.0678 /NodeList/1/DeviceList/1/$ns3::PointToPointNetDevice/MacRx ns3::PppHeader (Point-to-Point Protocol: IP (0x0021)) ns3::Ipv4Header (tos 0x0 DSCP Default ECN Not-ECT ttl 64 id 1 protocol 6 offset (bytes) 0 flags [none] length: 52 10.1.2.2 > 10.1.1.1) ns3::TcpHeader (9999 > 49153 [ACK] Seq=1 Ack=537 Win=32768 ns3::TcpOptionTS(64;13) ns3::TcpOptionEnd(EOL))
+ 0.0678 /NodeList/1/DeviceList/0/$ns3::PointToPointNetDevice/TxQueue/Enqueue ns3::PppHeader (Point-to-Point Protocol: IP (0x0021)) ns3::Ipv4Header (tos 0x0 DSCP Default ECN Not-ECT ttl 63 id 1 protocol 6 offset (bytes) 0 flags [none] length: 52 10.1.2.2 > 10.1.1.1) ns3::TcpHeader (9999 > 49153 [ACK] Seq=1 Ack=537 Win=32768 ns3::TcpOptionTS(64;13) ns3::TcpOptionEnd(EOL))
- 0.0678 /NodeList/1/DeviceList/0/$ns3::PointToPointNetDevice/TxQueue/Dequeue ns3::PppHeader (Point-to-Point Protocol: IP (0x0021)) ns3::Ipv4Header (tos 0x0 DSCP Default ECN Not-ECT ttl 63 id 1 protocol 6 offset (bytes) 0 flags [none] length: 52 10.1.2.2 > 10.1.1.1) ns3::TcpHeader (9999 > 49153 [ACK] Seq=1 Ack=537 Win=32768 ns3::TcpOptionTS(64;13) ns3::TcpOptionEnd(EOL))
r 0.07096 /NodeList/0/DeviceList/0/$ns3::PointToPointNetDevice/MacRx ns3::PppHeader (Point-to-Point Protocol: IP (0x0021)) ns3::Ipv4Header (tos 0x0 DSCP Default ECN Not-ECT ttl 63 id 1 protocol 6 offset (bytes) 0 flags [none] length: 52 10.1.2.2 > 10.1.1.1) ns3::TcpHeader (9999 > 49153 [ACK] Seq=1 Ack=537 Win=32768 ns3::TcpOptionTS(64;13) ns3::TcpOptionEnd(EOL))
+ 0.07096 /NodeList/0/DeviceList/0/$ns3::PointToPointNetDevice/TxQueue/Enqueue ns3::PppHeader (Point-to-Point Protocol: IP (0x0021)) ns3::Ipv4Header (tos 0x0 DSCP Default ECN Not-ECT ttl 64 id 3 protocol 6 offset (bytes) 0 flags [none] length: 588 10.1.1.1 > 10.1.2.2) ns3::TcpHeader (49153 > 9999 [ACK] Seq=537 Ack=1 Win=32768 ns3::TcpOptionTS(70;64) ns3::TcpOptionEnd(EOL)) Payload Fragment [536:1000] Payload Fragment [0:72]
- 0.07096 /NodeList/0/DeviceList/0/$ns3::PointToPointNetDevice/TxQueue/Dequeue ns3::PppHeader (Point-to-Point Protocol: IP (0x0021)) ns3::Ipv4Header (tos 0x0 DSCP Default ECN Not-ECT ttl 64 id 3 protocol 6 offset (bytes) 0 flags [none] length: 588 10.1.1.1 > 10.1.2.2) ns3::TcpHeader (49153 > 9999 [ACK] Seq=537 Ack=1 Win=32768 ns3::TcpOptionTS(70;64) ns3::TcpOptionEnd(EOL)) Payload Fragment [536:1000] Payload Fragment [0:72]
+ 0.07096 /NodeList/0/DeviceList/0/$ns3::PointToPointNetDevice/TxQueue/Enqueue ns3::PppHeader (Point-to-Point Protocol: IP (0x0021)) ns3::Ipv4Header (tos 0x0 DSCP Default ECN Not-ECT ttl 64 id 4 protocol 6 offset (bytes) 0 flags [none] length: 588 10.1.1.1 > 10.1.2.2) ns3::TcpHeader (49153 > 9999 [ACK] Seq=1073 Ack=1 Win=32768 ns3::TcpOptionTS(70;64) ns3::TcpOptionEnd(EOL)) Payload Fragment [72:608]
r 0.08824 /NodeList/2/DeviceList/0/$ns3::PointToPointNetDevice/MacRx ns3::PppHeader (Point-to-Point Protocol: IP (0x0021)) ns3::Ipv4Header (tos 0x0 DSCP Default ECN Not-ECT ttl 63 id 2 protocol 6 offset (bytes) 0 flags [none] length: 588 10.1.3.2 > 10.1.2.2) ns3::TcpHeader (49153 > 9999 [ACK] Seq=1 Ack=1 Win=32768 ns3::TcpOptionTS(15;8) ns3::TcpOptionEnd(EOL)) Payload Fragment [0:536]
+ 0.08824 /NodeList/2/DeviceList/0/$ns3::PointToPointNetDevice/TxQueue/Enqueue ns3::PppHeader (Point-to-Point Protocol: IP (0x0021)) ns3::Ipv4Header (tos 0x0 DSCP Default ECN Not-ECT ttl 64 id 1 protocol 6 offset (bytes) 0 flags [none] length: 52 10.1.2.2 > 10.1.3.2) ns3::TcpHeader (9999 > 49153 [ACK] Seq=1 Ack=537 Win=32768 ns3::TcpOptionTS(88;15) ns3::TcpOptionEnd(EOL))
- 0.08824 /NodeList/2/DeviceList/0/$ns3::PointToPointNetDevice/TxQueue/Dequeue ns3::PppHeader (Point-to-Point Protocol: IP (0x0021)) ns3::Ipv4Header (tos 0x0 DSCP Default ECN Not-ECT ttl 64 id 1 protocol 6 offset (bytes) 0 flags [none] length: 52 10.1.2.2 > 10.1.3.2) ns3::TcpHeader (9999 > 49153 [ACK] Seq=1 Ack=537 Win=32768 ns3::TcpOptionTS(88;15) ns3::TcpOptionEnd(EOL))
r 0.0914 /NodeList/1/DeviceList/1/$ns3::PointToPointNetDevice/MacRx ns3::PppHeader (Point-to-Point Protocol: IP (0x0021)) ns3::Ipv4Header (tos 0x0 DSCP Default ECN Not-ECT ttl 64 id 1 protocol 6 offset (bytes) 0 flags [none] length: 52 10.1.2.2 > 10.1.3.2) ns3::TcpHeader (9999 > 49153 [ACK] Seq=1 Ack=537 Win=32768 ns3::TcpOptionTS(88;15) ns3::TcpOptionEnd(EOL))
+ 0.0914 /NodeList/1/DeviceList/2/$ns3::PointToPointNetDevice/TxQueue/Enqueue ns3::PppHeader (Point-to-Point Protocol: IP (0x0021)) ns3::Ipv4Header (tos 0x0 DSCP Default ECN Not-ECT ttl 63 id 1 protocol 6 offset (bytes) 0 flags [none] length: 52 10.1.2.2 > 10.1.3.2) ns3::TcpHeader (9999 > 49153 [ACK] Seq=1 Ack=537 Win=32768 ns3::TcpOptionTS(88;15) ns3::TcpOptionEnd(EOL))
- 0.0914 /NodeList/1/DeviceList/2/$ns3::PointToPointNetDevice/TxQueue/Dequeue ns3::PppHeader (Point-to-Point Protocol: IP (0x0021)) ns3::Ipv4Header (tos 0x0 DSCP Default ECN Not-ECT ttl 63 id 1 protocol 6 offset (bytes) 0 flags [none] length: 52 10.1.2.2 > 10.1.3.2) ns3::TcpHeader (9999 > 49153 [ACK] Seq=1 Ack=537 Win=32768 ns3::TcpOptionTS(88;15) ns3::TcpOptionEnd(EOL))
- 0.09456 /NodeList/0/DeviceList/0/$ns3::PointToPointNetDevice/TxQueue/Dequeue ns3::PppHeader (Point-to-Point Protocol: IP (0x0021)) ns3::Ipv4Header (tos 0x0 DSCP Default ECN Not-ECT ttl 64 id 4 protocol 6 offset (bytes) 0 flags [none] length: 588 10.1.1.1 > 10.1.2.2) ns3::TcpHeader (49153 > 9999 [ACK] Seq=1073 Ack=1 Win=32768 ns3::TcpOptionTS(70;64) ns3::TcpOptionEnd(EOL)) Payload Fragment [72:608]
r 0.09456 /NodeList/3/DeviceList/0/$ns3::PointToPointNetDevice/MacRx ns3::PppHeader (Point-to-Point Protocol: IP (0x0021)) ns3::Ipv4Header (tos 0x0 DSCP Default ECN Not-ECT ttl 63 id 1 protocol 6 offset (bytes) 0 flags [none] length: 52 10.1.2.2 > 10.1.3.2) ns3::TcpHeader (9999 > 49153 [ACK] Seq=1 Ack=537 Win=32768 ns3::TcpOptionTS(88;15) ns3::TcpOptionEnd(EOL))
+ 0.09456 /NodeList/3/DeviceList/0/$ns3::PointToPointNetDevice/TxQueue/Enqueue ns3::PppHeader (Point-to-Point Protocol: IP (0x0021)) ns3::Ipv4Header (tos 0x0 DSCP Default ECN Not-ECT ttl 64 id 3 protocol 6 offset (bytes) 0 flags [none] length: 588 10.1.3.2 > 10.1.2.2) ns3::TcpHeader (49153 > 9999 [ACK] Seq=537 Ack=1 Win=32768 ns3::TcpOptionTS(94;88) ns3::TcpOptionEnd(EOL)) Payload Fragment [536:1000] Payload Fragment [0:72]
- 0.09456 /NodeList/3/DeviceList/0/$ns3::PointToPointNetDevice/TxQueue/Dequeue ns3::PppHeader (Point-to-Point Protocol: IP (0x0021)) ns3::Ipv4Header (tos 0x0 DSCP Default ECN Not-ECT ttl 64 id 3 protocol 6 offset (bytes) 0 flags [none] length: 588 10.1.3.2 > 10.1.2.2) ns3::TcpHeader (49153 > 9999 [ACK] Seq=537 Ack=1 Win=32768 ns3::TcpOptionTS(94;88) ns3::TcpOptionEnd(EOL)) Payload Fragment [536:1000] Payload Fragment [0:72]
+ 0.09456 /NodeList/3/DeviceList/0/$ns3::PointToPointNetDevice/TxQueue/Enqueue ns3::PppHeader (Point-to-Point Protocol: IP (0x0021)) ns3::Ipv4Header (tos 0x0 DSCP Default ECN Not-ECT ttl 64 id 4 protocol 6 offset (bytes) 0 flags [none] length: 588 10.1.3.2 > 10.1.2.2) ns3::TcpHeader (49153 > 9999 [ACK] Seq=1073 Ack=1 Win=32768 ns3::TcpOptionTS(94;88) ns3::TcpOptionEnd(EOL)) Payload Fragment [72:608]
r 0.09556 /NodeList/1/DeviceList/0/$ns3::PointToPointNetDevice/MacRx ns3::PppHeader (Point-to-Point Protocol: IP (0x0021)) ns3::Ipv4Header (tos 0x0 DSCP Default ECN Not-ECT ttl 64 id 3 protocol 6 offset (bytes) 0 flags [none] length: 588 10.1.1.1 > 10.1.2.2) ns3::TcpHeader (49153 > 9999 [ACK] Seq=537 Ack=1 Win=32768 ns3::TcpOptionTS(70;64) ns3::TcpOptionEnd(EOL)) Payload Fragment [536:1000] Payload Fragment [0:72]
+ 0.09556 /NodeList/1/DeviceList/1/$ns3::PointToPointNetDevice/TxQueue/Enqueue ns3::PppHeader (Point-to-Point Protocol: IP (0x0021)) ns3::Ipv4Header (tos 0x0 DSCP Default ECN Not-ECT ttl 63 id 3 protocol 6 offset (bytes) 0 flags [none] length: 588 10.1.1.1 > 10.1.2.2) ns3::TcpHeader (49153 > 9999 [ACK] Seq=537 Ack=1 Win=32768 ns3::TcpOptionTS(70;64) ns3::TcpOptionEnd(EOL)) Payload Fragment [536:1000] Payload Fragment [0:72]
- 0.09556 /NodeList/1/DeviceList/1/$ns3::PointToPointNetDevice/TxQueue/Dequeue ns3::PppHeader (Point-to-Point Protocol: IP (0x0021)) ns3::Ipv4Header (tos 0x0 DSCP Default ECN Not-ECT ttl 63 id 3 protocol 6 offset (bytes) 0 flags [none] length: 588 10.1.1.1 > 10.1.2.2) ns3::TcpHeader (49153 > 9999 [ACK] Seq=537 Ack=1 Win=32768 ns3::TcpOptionTS(70;64) ns3::TcpOptionEnd(EOL)) Payload Fragment [536:1000] Payload Fragment [0:72]
+ 0.1 /NodeList/2/DeviceList/0/$ns3::PointToPointNetDevice/TxQueue/Enqueue ns3::PppHeader (Point-to-Point Protocol: IP (0x0021)) ns3::Ipv4Header (tos 0x0 DSCP Default ECN Not-ECT ttl 64 id 2 protocol 6 offset (bytes) 0 flags [none] length: 52 10.1.2.2 > 10.1.1.1) ns3::TcpHeader (9999 > 49153 [FIN|ACK] Seq=1 Ack=537 Win=32768 ns3::TcpOptionTS(100;13) ns3::TcpOptionEnd(EOL))
- 0.1 /NodeList/2/DeviceList/0/$ns3::PointToPointNetDevice/TxQueue/Dequeue ns3::PppHeader (Point-to-Point Protocol: IP (0x0021)) ns3::Ipv4Header (tos 0x0 DSCP Default ECN Not-ECT ttl 64 id 2 protocol 6 offset (bytes) 0 flags [none] length: 52 10.1.2.2 > 10.1.1.1) ns3::TcpHeader (9999 > 49153 [FIN|ACK] Seq=1 Ack=537 Win=32768 ns3::TcpOptionTS(100;13) ns3::TcpOptionEnd(EOL))
+ 0.1 /NodeList/2/DeviceList/0/$ns3::PointToPointNetDevice/TxQueue/Enqueue ns3::PppHeader (Point-to-Point Protocol: IP (0x0021)) ns3::Ipv4Header (tos 0x0 DSCP Default ECN Not-ECT ttl 64 id 2 protocol 6 offset (bytes) 0 flags [none] length: 52 10.1.2.2 > 10.1.3.2) ns3::TcpHeader (9999 > 49153 [FIN|ACK] Seq=1 Ack=537 Win=32768 ns3::TcpOptionTS(100;15) ns3::TcpOptionEnd(EOL))
- 0.10216 /NodeList/2/DeviceList/0/$ns3::PointToPointNetDevice/TxQueue/Dequeue ns3::PppHeader (Point-to-Point Protocol: IP (0x0021)) ns3::Ipv4Header (tos 0x0 DSCP Default ECN Not-ECT ttl 64 id 2 protocol 6 offset (bytes) 0 flags [none] length: 52 10.1.2.2 > 10.1.3.2) ns3::TcpHeader (9999 > 49153 [FIN|ACK] Seq=1 Ack=537 Win=32768 ns3::TcpOptionTS(100;15) ns3::TcpOptionEnd(EOL))